# vtk DataFile Version 2.0
Stress Distribution
ASCII
 
DATASET UNSTRUCTURED_GRID
POINTS      726  double
   0.0000000000000000        0.0000000000000000        1.3999999999999999E-004
   0.0000000000000000        0.0000000000000000        1.0700000000000000E-004
   0.0000000000000000        5.0800000000000002E-005   1.0700000000000000E-004
   0.0000000000000000        5.0800000000000002E-005   1.3999999999999999E-004
   5.0800000000000002E-005   0.0000000000000000        1.3999999999999999E-004
   5.0800000000000002E-005   0.0000000000000000        1.0700000000000000E-004
   5.0800000000000002E-005   5.0800000000000002E-005   1.0700000000000000E-004
   5.0800000000000002E-005   5.0800000000000002E-005   1.3999999999999999E-004
   0.0000000000000000        1.0160000000000000E-004   1.0700000000000000E-004
   0.0000000000000000        1.0160000000000000E-004   1.3999999999999999E-004
   5.0800000000000002E-005   1.0160000000000000E-004   1.0700000000000000E-004
   5.0800000000000002E-005   1.0160000000000000E-004   1.3999999999999999E-004
   0.0000000000000000        1.5239999999999999E-004   1.0700000000000000E-004
   0.0000000000000000        1.5239999999999999E-004   1.3999999999999999E-004
   5.0800000000000002E-005   1.5239999999999999E-004   1.0700000000000000E-004
   5.0800000000000002E-005   1.5239999999999999E-004   1.3999999999999999E-004
   0.0000000000000000        2.0320000000000001E-004   1.0700000000000000E-004
   0.0000000000000000        2.0320000000000001E-004   1.3999999999999999E-004
   5.0800000000000002E-005   2.0320000000000001E-004   1.0700000000000000E-004
   5.0800000000000002E-005   2.0320000000000001E-004   1.3999999999999999E-004
   0.0000000000000000        2.5399999999999999E-004   1.0700000000000000E-004
   0.0000000000000000        2.5399999999999999E-004   1.3999999999999999E-004
   5.0800000000000002E-005   2.5399999999999999E-004   1.0700000000000000E-004
   5.0800000000000002E-005   2.5399999999999999E-004   1.3999999999999999E-004
   0.0000000000000000        3.0479999999999998E-004   1.0700000000000000E-004
   0.0000000000000000        3.0479999999999998E-004   1.3999999999999999E-004
   5.0800000000000002E-005   3.0479999999999998E-004   1.0700000000000000E-004
   5.0800000000000002E-005   3.0479999999999998E-004   1.3999999999999999E-004
   0.0000000000000000        3.5560000000000002E-004   1.0700000000000000E-004
   0.0000000000000000        3.5560000000000002E-004   1.3999999999999999E-004
   5.0800000000000002E-005   3.5560000000000002E-004   1.0700000000000000E-004
   5.0800000000000002E-005   3.5560000000000002E-004   1.3999999999999999E-004
   0.0000000000000000        4.0640000000000001E-004   1.0700000000000000E-004
   0.0000000000000000        4.0640000000000001E-004   1.3999999999999999E-004
   5.0800000000000002E-005   4.0640000000000001E-004   1.0700000000000000E-004
   5.0800000000000002E-005   4.0640000000000001E-004   1.3999999999999999E-004
   0.0000000000000000        4.5720000000000000E-004   1.0700000000000000E-004
   0.0000000000000000        4.5720000000000000E-004   1.3999999999999999E-004
   5.0800000000000002E-005   4.5720000000000000E-004   1.0700000000000000E-004
   5.0800000000000002E-005   4.5720000000000000E-004   1.3999999999999999E-004
   0.0000000000000000        5.0799999999999999E-004   1.0700000000000000E-004
   0.0000000000000000        5.0799999999999999E-004   1.3999999999999999E-004
   5.0800000000000002E-005   5.0799999999999999E-004   1.0700000000000000E-004
   5.0800000000000002E-005   5.0799999999999999E-004   1.3999999999999999E-004
   1.0160000000000000E-004   0.0000000000000000        1.3999999999999999E-004
   1.0160000000000000E-004   0.0000000000000000        1.0700000000000000E-004
   1.0160000000000000E-004   5.0800000000000002E-005   1.0700000000000000E-004
   1.0160000000000000E-004   5.0800000000000002E-005   1.3999999999999999E-004
   1.0160000000000000E-004   1.0160000000000000E-004   1.0700000000000000E-004
   1.0160000000000000E-004   1.0160000000000000E-004   1.3999999999999999E-004
   1.0160000000000000E-004   1.5239999999999999E-004   1.0700000000000000E-004
   1.0160000000000000E-004   1.5239999999999999E-004   1.3999999999999999E-004
   1.0160000000000000E-004   2.0320000000000001E-004   1.0700000000000000E-004
   1.0160000000000000E-004   2.0320000000000001E-004   1.3999999999999999E-004
   1.0160000000000000E-004   2.5399999999999999E-004   1.0700000000000000E-004
   1.0160000000000000E-004   2.5399999999999999E-004   1.3999999999999999E-004
   1.0160000000000000E-004   3.0479999999999998E-004   1.0700000000000000E-004
   1.0160000000000000E-004   3.0479999999999998E-004   1.3999999999999999E-004
   1.0160000000000000E-004   3.5560000000000002E-004   1.0700000000000000E-004
   1.0160000000000000E-004   3.5560000000000002E-004   1.3999999999999999E-004
   1.0160000000000000E-004   4.0640000000000001E-004   1.0700000000000000E-004
   1.0160000000000000E-004   4.0640000000000001E-004   1.3999999999999999E-004
   1.0160000000000000E-004   4.5720000000000000E-004   1.0700000000000000E-004
   1.0160000000000000E-004   4.5720000000000000E-004   1.3999999999999999E-004
   1.0160000000000000E-004   5.0799999999999999E-004   1.0700000000000000E-004
   1.0160000000000000E-004   5.0799999999999999E-004   1.3999999999999999E-004
   1.5239999999999999E-004   0.0000000000000000        1.3999999999999999E-004
   1.5239999999999999E-004   0.0000000000000000        1.0700000000000000E-004
   1.5239999999999999E-004   5.0800000000000002E-005   1.0700000000000000E-004
   1.5239999999999999E-004   5.0800000000000002E-005   1.3999999999999999E-004
   1.5239999999999999E-004   1.0160000000000000E-004   1.0700000000000000E-004
   1.5239999999999999E-004   1.0160000000000000E-004   1.3999999999999999E-004
   1.5239999999999999E-004   1.5239999999999999E-004   1.0700000000000000E-004
   1.5239999999999999E-004   1.5239999999999999E-004   1.3999999999999999E-004
   1.5239999999999999E-004   2.0320000000000001E-004   1.0700000000000000E-004
   1.5239999999999999E-004   2.0320000000000001E-004   1.3999999999999999E-004
   1.5239999999999999E-004   2.5399999999999999E-004   1.0700000000000000E-004
   1.5239999999999999E-004   2.5399999999999999E-004   1.3999999999999999E-004
   1.5239999999999999E-004   3.0479999999999998E-004   1.0700000000000000E-004
   1.5239999999999999E-004   3.0479999999999998E-004   1.3999999999999999E-004
   1.5239999999999999E-004   3.5560000000000002E-004   1.0700000000000000E-004
   1.5239999999999999E-004   3.5560000000000002E-004   1.3999999999999999E-004
   1.5239999999999999E-004   4.0640000000000001E-004   1.0700000000000000E-004
   1.5239999999999999E-004   4.0640000000000001E-004   1.3999999999999999E-004
   1.5239999999999999E-004   4.5720000000000000E-004   1.0700000000000000E-004
   1.5239999999999999E-004   4.5720000000000000E-004   1.3999999999999999E-004
   1.5239999999999999E-004   5.0799999999999999E-004   1.0700000000000000E-004
   1.5239999999999999E-004   5.0799999999999999E-004   1.3999999999999999E-004
   2.0320000000000001E-004   0.0000000000000000        1.3999999999999999E-004
   2.0320000000000001E-004   0.0000000000000000        1.0700000000000000E-004
   2.0320000000000001E-004   5.0800000000000002E-005   1.0700000000000000E-004
   2.0320000000000001E-004   5.0800000000000002E-005   1.3999999999999999E-004
   2.0320000000000001E-004   1.0160000000000000E-004   1.0700000000000000E-004
   2.0320000000000001E-004   1.0160000000000000E-004   1.3999999999999999E-004
   2.0320000000000001E-004   1.5239999999999999E-004   1.0700000000000000E-004
   2.0320000000000001E-004   1.5239999999999999E-004   1.3999999999999999E-004
   2.0320000000000001E-004   2.0320000000000001E-004   1.0700000000000000E-004
   2.0320000000000001E-004   2.0320000000000001E-004   1.3999999999999999E-004
   2.0320000000000001E-004   2.5399999999999999E-004   1.0700000000000000E-004
   2.0320000000000001E-004   2.5399999999999999E-004   1.3999999999999999E-004
   2.0320000000000001E-004   3.0479999999999998E-004   1.0700000000000000E-004
   2.0320000000000001E-004   3.0479999999999998E-004   1.3999999999999999E-004
   2.0320000000000001E-004   3.5560000000000002E-004   1.0700000000000000E-004
   2.0320000000000001E-004   3.5560000000000002E-004   1.3999999999999999E-004
   2.0320000000000001E-004   4.0640000000000001E-004   1.0700000000000000E-004
   2.0320000000000001E-004   4.0640000000000001E-004   1.3999999999999999E-004
   2.0320000000000001E-004   4.5720000000000000E-004   1.0700000000000000E-004
   2.0320000000000001E-004   4.5720000000000000E-004   1.3999999999999999E-004
   2.0320000000000001E-004   5.0799999999999999E-004   1.0700000000000000E-004
   2.0320000000000001E-004   5.0799999999999999E-004   1.3999999999999999E-004
   2.5399999999999999E-004   0.0000000000000000        1.3999999999999999E-004
   2.5399999999999999E-004   0.0000000000000000        1.0700000000000000E-004
   2.5399999999999999E-004   5.0800000000000002E-005   1.0700000000000000E-004
   2.5399999999999999E-004   5.0800000000000002E-005   1.3999999999999999E-004
   2.5399999999999999E-004   1.0160000000000000E-004   1.0700000000000000E-004
   2.5399999999999999E-004   1.0160000000000000E-004   1.3999999999999999E-004
   2.5399999999999999E-004   1.5239999999999999E-004   1.0700000000000000E-004
   2.5399999999999999E-004   1.5239999999999999E-004   1.3999999999999999E-004
   2.5399999999999999E-004   2.0320000000000001E-004   1.0700000000000000E-004
   2.5399999999999999E-004   2.0320000000000001E-004   1.3999999999999999E-004
   2.5399999999999999E-004   2.5399999999999999E-004   1.0700000000000000E-004
   2.5399999999999999E-004   2.5399999999999999E-004   1.3999999999999999E-004
   2.5399999999999999E-004   3.0479999999999998E-004   1.0700000000000000E-004
   2.5399999999999999E-004   3.0479999999999998E-004   1.3999999999999999E-004
   2.5399999999999999E-004   3.5560000000000002E-004   1.0700000000000000E-004
[...]
POINT_DATA    726
FIELD Stress 12
S11 1       726  double
   60644.411385956839     
  -132355.36536705782     
   56884.838659666500     
   107667.88272170976     
   50061.277531329135     
  -9544.7963740141349     
   64018.217993128128     
   51233.375120638200     
   33874.638045506814     
   116516.40915151335     
   58583.464322443811     
   72597.981081998470     
   55774.785806817577     
   104747.32690633996     
   59007.113392743726     
   77164.517977422598     
   59545.859865050661     
   90168.235735160735     
   57899.350178902183     
   81631.000919610757     
   39557.773395637370     
   94009.915143002378     
   62502.953552381128     
   76069.915767671730     
   30292.356564405985     
   103460.12192436869     
   70192.080814504341     
   71800.255735512066     
   55189.815883820134     
   94916.977234933729     
   70368.146488957151     
   73821.910908689126     
   78294.319880807918     
   71433.226510209701     
   65587.513819312910     
   79534.287913710650     
   103733.12312620110     
   66128.354688357562     
   42167.468727667518     
   90439.014417639992     
   25856.838267201856     
  -49805.903640976459     
   27492.099299079800     
   26671.111541184400     
   70625.725079388401     
   34651.409068387671     
   54543.591897695704     
   55864.003235383367     
   62645.282456757894     
   67105.604582824424     
   58640.745192163347     
   71018.535147628456     
   62490.132941857206     
   70951.453174074864     
   62927.074667512279     
   72530.531014148888     
   63358.703351767144     
   73342.856593181787     
   62762.478906734177     
   70998.543989806378     
   68519.685640884985     
   59163.947538879671     
   38654.425734128847     
   48886.210165285302     
   65237.568338729128     
   62641.978588285005     
   71891.028553499840     
   68485.872690772070     
   46879.929400360619     
   63919.656317683490     
   66387.782403812191     
   65157.441365606923     
   62103.765130952961     
   68455.403541524342     
   61640.385530856598     
   69533.854916019409     
   62326.611393153842     
   70090.247940419780     
   61647.517090671528     
   70606.684213523404     
   60803.371912902403     
   69110.072184808319     
   54609.044524794335     
   62645.794789128486     
   72933.131880141984     
   28944.282024444132     
   17706.471366141945     
   115442.74653725480     
   54264.608623234861     
   77962.748586956979     
   43639.850116926937     
   72122.113968685022     
   70436.611196922182     
   58713.482047695477     
   64312.718609800599     
   63929.039111063903     
   64049.040676912060     
   64440.240471374738     
   63965.853384235386     
   64497.266228071167     
   63814.175439440543     
   64464.228914011765     
   63599.321024656892     
   61359.984586975872     
   56425.113619855816     
   60856.471381995550     
   81691.511151775310     
   14679.166734514269     
   42446.147582092046     
   139286.35480415041     
   59684.718049900432     
   54984.632866129876     
   62595.177644379495     
   62285.027288391473     
   63936.626151998222     
   56280.667264450458     
   63689.266272830704     
   63817.803263710935     
   64272.513721910938     
   62021.558747577015     
   64739.001278264572     
   61797.307742700017     
   65200.028172471051     
   61324.777690632742     
   65623.703129786300     
   58526.392566858325     
   65035.383646094582     
   51044.418807132301     
   39428.339064228465     
   63179.335835340185     
   114974.22795858368     
   58320.909027826987     
   105176.70946176763     
   52985.799863918699     
   69274.072607772105     
   34662.903973773777     
   60817.171703013912     
   58127.272924180477     
   63774.299581785381     
   58986.036159491014     
   64438.356787902252     
   59525.160415267441     
   64879.146303368019     
   58942.250263074391     
   64317.621299056213     
   58559.874863716897     
   64975.796401950960     
   55242.320916811863     
   65039.836438474675     
   40578.360592945144     
   5817.1385641869674     
   120620.05669332728     
   134576.50714776490     
  -17363.820371036523     
   125024.68967359295     
   31427.887941208523     
   87278.725678613322     
   17292.151138717003     
   52928.148320776869     
   57105.624301353608     
   64176.594609843363     
   56082.086965528077     
   63305.168181445457     
   58072.546933900492     
   65031.931484879613     
   57200.383611614561     
   64841.614340389198     
   56167.396811127866     
   64097.195373917952     
   52030.132975666187     
   63012.351646872514     
   40271.894315286030     
   39925.791572397553     
   72825.641309935701     
   87121.557416520955     
   6279.0296992959775     
   134364.77703626524     
   69283.885771363435     
   76755.667371230229     
  -9323.9523871613073     
   43417.313530029285     
   68651.468812784442     
   56100.494814249352     
   53552.889025705692     
   58450.539142498397     
   60570.693203633607     
   62500.698256545358     
   59921.492092124477     
   61969.807025218906     
   61940.703558296496     
   60130.994252623597     
   62568.952307405358     
   55776.996521097542     
   69347.612567524746     
   91617.257869251000     
  -32.743431291710294     
   38268.464432587018     
   109776.28695751462     
  -31685.005878754469     
   109102.73541013697     
   8997.8773832114202     
   66821.671611650439     
   54440.156924826166     
   32098.631158136312     
   61172.654914577601     
   46815.463877320166     
   66249.999910517057     
   54175.843072294127     
   61146.452563606123     
   58311.220107032124     
   63564.919425457207     
   58278.629868488919     
   65380.161497438268     
   51456.038104270992     
   55515.865086168618     
   62664.969154884900     
   77203.255015127448     
   31491.275217899238     
   15930.717746904003     
   65281.573190818104     
  -228352.57433300308     
   160461.95502084336     
  -6152.0521574449540     
   163647.84552454308     
   80759.038579538741     
   11862.798656915635     
   66324.369471745988     
   26618.597281153416     
   40844.050367374111     
   6235.4520990046803     
   37749.837745324869     
   12742.672624590228     
   36936.459122468863     
   31657.948564057486     
   29620.566708035702     
   72565.015648359826     
   35943.577177834741     
   90045.143905013640     
   29225.701045906975     
   130578.56406643076     
  -1764.9563567329596     
   9436.8030014993492     
   291732.57435584941     
   395617.67409113585     
   312220.52756538533     
   296108.17206140584     
   389358.41093208845     
   267608.39696366893     
   302557.79821026820     
   314586.32867925020     
   242831.08870421862     
   343287.59246981470     
   223993.46009582124     
   342167.40575314203     
   249451.06122239269     
   320306.98540102475     
   289718.97047813941     
   319376.57082634297     
   345754.03242413030     
   328090.90775556437     
   386680.75795340718     
   332858.54757704621     
   312518.35661026707     
   248793.47914396573     
   335238.95224612579     
   269113.53662932583     
   328059.20719877689     
   324750.79548066237     
   327520.93008087296     
   319949.44126449258     
   322109.86677194247     
   320143.91529279167     
   324245.83719541784     
   336285.15450639988     
   277878.02367344865     
   334976.78893136268     
   307897.41678376595     
   326924.23195935058     
   326756.85047707160     
   322394.28024076618     
   319089.08469534363     
   321923.41660702100     
   324407.83106788999     
   331256.16319852287     
   332998.01977641310     
   316735.43070385524     
   333219.94614566036     
   338142.38683088718     
   330058.28779232380     
   326846.64705369010     
   324003.62386394484     
   321643.70762957400     
   323528.88824330259     
   326331.27963047609     
   329959.72082462511     
   325505.75888281222     
   317314.83831537061     
   330052.28079772030     
   362446.84271766688     
   329779.47875306942     
   326505.67910430790     
   324684.98631757498     
   323605.63194758823     
   324430.84804060607     
   326429.43480736698     
   328106.84522070969     
   325666.11729598505     
   301550.03374976909     
   329107.90138311544     
   359571.25287781213     
   333430.70597009355     
   327421.56208032614     
   325900.78396737797     
   324766.13393219461     
   325056.10255339218     
   326201.88084592205     
   327462.21820809331     
   332714.04194676754     
   307991.93802759249     
   336005.84404613392     
   356964.95479738014     
   330682.70033784537     
   325788.41862606764     
   326359.28983732784     
   326968.36030463962     
   324772.54036364256     
   324883.90287598269     
   326317.49479503755     
   335848.24318781187     
   332443.87743403914     
   338003.21256105544     
   311895.90343280032     
   342745.51299937989     
   333846.61430931609     
   332440.65631953132     
   325034.32313029649     
   321889.43737802614     
   320817.00482784968     
   320762.77888437436     
   326725.71985155361     
   362111.66573622142     
   327642.64799059468     
   344387.30299979111     
   303462.12778686412     
   319319.26138313761     
   328150.17311171599     
   341303.21892018773     
   345964.70454639441     
   342203.19330829423     
   320214.22233911039     
   281869.10972598346     
   311356.23761162878     
   302261.19304403558     
   166186.50113464752     
   364696.33341855352     
   321037.12216175307     
   297175.37017375568     
   275288.23345316428     
   282142.26159806410     
   308067.95061417506     
   356289.15700138779     
   403274.21969840408     
   427616.34811183868     
   617691.42496167403     
   647189.04465035046     
   590963.14268817939     
   414378.42402316653     
   545953.30446260667     
   604493.77991719404     
   500189.07158195495     
   604334.03203777515     
   506690.00936781964     
   591666.21049074188     
   557252.16119700600     
   568139.78661380336     
   550669.40882753395     
   567590.28707582562     
   550590.37768303766     
   589194.60702044074     
   591157.43674889184     
   584890.98256066011     
   681529.56075832690     
   585711.53004413645     
   612458.48434753995     
   431568.04074674973     
   580324.65485824482     
   521278.92240951635     
   573631.14573373972     
   579378.42071064119     
   580562.05494936078     
   595924.52419791103     
   587451.56171932095     
   585710.62813102640     
   580851.66125792789     
   586465.63829237805     
   477762.64546485606     
   579074.17407719372     
   522245.74151755765     
   580282.32480866474     
   580275.61528361111     
   581552.70564091997     
   584076.50484926766     
   582444.63118539716     
   582373.95482262166     
   577516.24189716182     
   585391.53594450862     
   515329.74883393582     
   578374.92525578628     
   541062.27782643167     
   579271.99865622271     
   579422.66176329087     
   579658.73223338963     
   581410.02966753056     
   581140.39896643674     
   580598.43623299582     
   578826.09299442708     
   572517.67568619607     
   553220.20544658089     
   579563.80401046190     
   548540.79101847787     
   577458.09075840819     
   578140.12173451716     
   578593.94461332902     
   579791.13313982473     
   580325.68481705477     
   579977.84140885971     
   578742.24621176778     
   567208.87708193820     
   567205.47017914255     
   582805.26794713363     
   552703.62358786340     
   578204.79188929242     
   577748.91280158330     
   578240.41182231496     
   580007.47586706677     
   580642.79359725839     
   580106.74590157461     
   580432.96369849541     
   575570.78913992690     
   567776.99524860829     
   587371.34747600078     
   566812.35274223611     
   579377.93271265132     
   580746.27905109338     
   579270.84259531193     
   581127.20133690280     
   581852.90698715323     
   581053.91257210134     
   579639.68546851736     
   588668.92719037563     
   549066.58148524503     
   586089.03799303388     
   595785.41208132647     
   580082.37059550441     
   578681.27113470854     
   579813.10981056467     
   589418.08656276704     
   587373.58947960939     
   583683.40144690848     
   577658.53521384322     
   587432.58411804400     
   550944.60399814160     
   558567.43769809802     
   594429.26574861363     
   582843.24558414356     
   599489.20558597625     
   595209.29349884740     
   575564.13139828306     
   572182.43532997929     
   577191.84662586055     
   574989.51034834795     
   564974.88104534405     
   619861.60309577617     
   624733.61178416386     
   698391.06946463278     
   593805.83944117965     
   510462.20681008243     
   503829.16940832185     
   543001.14045014733     
   572374.79722174886     
   594883.79747978668     
   621686.87487670511     
   579388.75905414554     
   655845.47979682637     
   827163.37204010715     
   844532.46282719227     
   739106.68507404113     
   610988.55048787547     
   760090.44038718031     
   732344.46557297255     
   703103.02896173391     
   732447.62496196222     
   670300.40746054600     
   737084.89126304374     
   634305.09510503185     
   749041.84508256451     
   639505.67035287758     
   756992.91474505176     
   695721.68050523230     
   757001.95415548293     
   754444.26609242428     
   742865.84111857286     
   833310.59888266656     
   742917.60333900421     
   804965.14138687693     
   632533.91542145249     
   763115.73114958405     
   691448.53718334029     
   747568.28959041357     
   748311.63114148506     
   753720.19473300118     
   747920.83986453025     
   746957.99621211423     
   745323.28625481774     
   748049.63158656145     
   766956.05426564347     
   690479.76128932578     
   750989.52600349300     
   715889.08217450161     
   746313.57468948571     
   744591.92009470938     
   744799.87589907227     
   744940.63543469599     
   744865.75677582656     
   745006.83112743311     
   749742.30203412031     
   758841.21249548369     
   697463.80141325865     
   745159.50849773374     
   730738.07539445837     
   741797.35087494715     
   739474.33520694601     
   739486.76544305903     
   738651.09020960622     
   738856.07438731450     
   739708.16592701920     
   742073.94952129247     
   741830.00790868129     
   726620.69975993037     
   737117.94421201758     
   739040.67507680098     
   738300.95148491696     
   736363.21948802785     
   735646.69446933118     
   735159.37086986657     
   735319.61454273656     
   735599.54166726547     
   739212.21143876377     
   727771.88646493829     
   746360.08946048294     
   736296.44911871175     
   739591.55232451833     
   735273.07210923673     
   733762.09123457514     
   733945.56122666865     
   733162.22070623829     
   733167.19100069522     
   732732.08155296568     
   734553.02221809735     
   737903.65314568556     
   740795.73721278505     
   738971.98989659746     
   730579.84990852838     
   732970.43866003118     
   734085.62237441749     
   734771.15903744265     
   733987.42005104152     
   733196.25677516859     
   731053.99690868845     
   731025.12158251728     
   747654.75318179710     
   727688.56756885350     
   734399.22675994306     
   720061.60900353140     
   725422.56845071062     
   737479.69623246416     
   737221.35248842963     
   733787.94500764902     
   734225.36129699356     
   730073.73115129967     
   721591.93062376708     
   745105.21156488021     
   732361.85775610467     
   717271.55221222073     
   677248.62186727405     
   750541.33455477946     
   735997.69739785406     
   726541.68664037227     
   727503.20315869257     
   734400.22072251479     
   749074.04893529089     
   750216.80900029512     
   697284.22126465221     
   681628.00666555157     
   793595.84936511819     
   923627.42033761670     
   720183.62086221378     
   670871.37897098309     
   663172.24581268267     
   652517.24469082628     
   643390.55363706185     
   652729.01475955069     
   711952.86940815928     
   786281.63493801712     
   935354.82641042711     
   1059754.0704239334     
   992198.45508756978     
   909001.58723543247     
   822219.89947890188     
   945736.89055103902     
   899685.22232653317     
   887535.80295115686     
   887551.64464026515     
   816804.10042694816     
   901011.59565815900     
   818730.83574594487     
   890371.80484644277     
   839921.89956585411     
   892471.17854295508     
   881629.21564525296     
   901936.65678116470     
   930085.83562087407     
   907112.58178104693     
   993032.38979329506     
   908568.46073695028     
   1030989.1434967614     
   845488.30284535279     
   891316.19242720725     
   847822.91413492721     
   887787.06835491082     
   893039.73648390034     
   892376.61418947834     
   900091.36562430556     
   900312.45355121593     
   895550.36320941406     
   890817.74357723934     
   905100.69050896587     
   848671.06478922488     
   891396.06226251437     
   844919.72775725345     
   887537.35385083186     
   886323.81967565021     
   888900.02045758336     
   886268.05102619610     
   886229.80575961317     
   888261.94134551147     
   890246.20574712742     
   901195.93377594918     
   850083.66760958196     
   886244.46526181058     
   852308.05110652768     
   883532.96001119004     
   884260.97953923373     
   883920.33522010816     
   884718.55141444283     
   885001.59557547921     
   886006.88365949458     
   888227.81684466766     
   884124.64529030013     
   865522.03040078864     
   881636.43945327064     
   863574.08528422960     
   880683.59600244975     
   882612.99708970170     
   882101.69003329182     
   882364.58105423942     
   883097.88296469604     
   883972.42798241973     
   884203.58701680740     
   878731.12806311261     
   851625.23823929869     
   879872.38649964146     
   878469.02793630911     
   881105.92277491698     
   881186.64203596278     
   881615.04432877142     
   882551.20942764590     
   882457.39868550841     
   882296.55042668816     
   883216.86405395856     
   885355.93069630931     
   870256.78868349048     
   885547.67168202146     
   876545.68760803319     
   876662.65587883943     
   884691.97113619396     
   884963.12358652859     
   882363.62213167467     
   884120.82541301823     
   881005.11940682121     
   880745.74910803465     
   891954.43349425949     
   901422.11728257849     
   882712.83493356779     
   872371.59074847144     
   887499.38326043379     
   883281.88856122829     
   882459.16170738777     
   891596.38687205897     
   886671.68240667949     
   888127.06142351055     
   886418.41699311347     
   887054.75893499621     
   870827.24405297427     
   868999.48515025584     
   884059.76498023397     
   877893.86559763551     
   888209.88293546403     
   879229.58751180221     
   866337.96129668364     
   881807.47470974154     
   888670.83560847398     
   880318.05222749757     
   862968.55990692112     
   879024.04021231574     
   949085.27519167843     
   951124.88672821410     
   942636.19763511792     
   800889.96718656027     
   793862.46770681604     
   822067.41373519856     
   788717.31681502028     
   823853.53021219850     
   919773.50199039583     
   933339.42981869914     
   1001016.8536380812     
S22 1       726  double
  -9205.0828337253733     
  -202413.60117741360     
  -9927.2536421790064     
   41424.886995268156     
  -18997.342294792878     
  -78247.029161818602     
  -3006.5548177742212     
  -16008.468735864979     
  -33799.355188986163     
   49641.496366137981     
  -8910.1866375198697     